<VTKFile type="UnstructuredGrid" version="0.1" byte_order="LittleEndian"> 
<UnstructuredGrid> 
<Piece NumberOfPoints="24" NumberOfCells="5"> 
<Points> 
<DataArray type="Float64" NumberOfComponents="3" format="ascii"> 
 5.0  2.5 50.0
 5.0 -2.5 50.0
 5.0  2.5 40.0
 5.0 -2.5 40.0
 5.0  2.5 30.0
 5.0 -2.5 30.0
 5.0  2.5 20.0
 5.0 -2.5 20.0
 5.0  2.5 10.0
 5.0 -2.5 10.0
 5.0  2.5  0.0
 5.0 -2.5  0.0
-5.0  2.5 50.0
-5.0 -2.5 50.0
-5.0  2.5 40.0
-5.0 -2.5 40.0
-5.0  2.5 30.0
-5.0 -2.5 30.0
-5.0  2.5 20.0
-5.0 -2.5 20.0
-5.0  2.5 10.0
-5.0 -2.5 10.0
-5.0  2.5  0.0
-5.0 -2.5  0.0
</DataArray> 
</Points> 
<PointData Tensors="" Vectors="" Scalars=""><DataArray type="Float32" Name="Logarithmic_strain_Min_Principal" format="ascii">0.781438
0.535367
0.288836
0.971037
0.932599
0.379461
0.088055
0.961743
0.218077
0.037468
0.405276
0.749859
0.999080
0.230102
0.833498
0.750416
0.515500
0.645860
0.306647
0.761588
0.284073
0.084534
0.880373
0.781729</DataArray></PointData><Cells> 
<DataArray type="Int32" Name="connectivity" format="ascii"> 
12 13 15 14 0 1  3  2
14 15 17 16 2 3  5  4
16 17 19 18 4 5  7  6
18 19 21 20 6 7  9  8
20 21 23 22 8 9 11 10
</DataArray>

<DataArray type="Int32" Name="offsets" format="ascii">
 8
16
24
32
40
</DataArray>
<DataArray type="UInt8" Name="types" format="ascii">
12
12
12
12
12
</DataArray>
</Cells>
</Piece>
</UnstructuredGrid>
</VTKFile>
