<VTKFile type="UnstructuredGrid" version="0.1" byte_order="LittleEndian"> 
<UnstructuredGrid> 
<Piece NumberOfPoints="33" NumberOfCells="20"> 
<Points> 
<DataArray type="Float64" NumberOfComponents="3" format="ascii"> 
 0.0  0.0 0.0
 5.5  0.0 0.0
11.0  0.0 0.0
16.5  0.0 0.0
22.0  0.0 0.0
27.5  0.0 0.0
33.0  0.0 0.0
38.5  0.0 0.0
44.0  0.0 0.0
49.5  0.0 0.0
55.0  0.0 0.0
 0.0  5.0 0.0
 5.5  5.0 0.0
11.0  5.0 0.0
16.5  5.0 0.0
22.0  5.0 0.0
27.5  5.0 0.0
33.0  5.0 0.0
38.5  5.0 0.0
44.0  5.0 0.0
49.5  5.0 0.0
55.0  5.0 0.0
 0.0 10.0 0.0
 5.5 10.0 0.0
11.0 10.0 0.0
16.5 10.0 0.0
22.0 10.0 0.0
27.5 10.0 0.0
33.0 10.0 0.0
38.5 10.0 0.0
44.0 10.0 0.0
49.5 10.0 0.0
55.0 10.0 0.0
</DataArray> 
</Points> 
<PointData Tensors="" Vectors="" Scalars=""><DataArray type="Float32" Name="Logarithmic_strain_Min_Principal" format="ascii">0.904647
0.266302
0.714893
0.483024
0.806717
0.130360
0.375406
0.815693
0.887151
0.518061
0.543448
0.105236
0.193186
0.377886
0.571557
0.980183
0.920486
0.506769
0.950122
0.954405
0.715458
0.598550
0.686118
0.154560
0.128096
0.618250
0.611125
0.777285
0.502375
0.266697
0.241920
0.768830
0.965316</DataArray></PointData><Cells> 
<DataArray type="Int32" Name="connectivity" format="ascii"> 
 0  1 12 11
 1  2 13 12
 2  3 14 13
 3  4 15 14
 4  5 16 15
 5  6 17 16
 6  7 18 17
 7  8 19 18
 8  9 20 19
 9 10 21 20
11 12 23 22
12 13 24 23
13 14 25 24
14 15 26 25
15 16 27 26
16 17 28 27
17 18 29 28
18 19 30 29
19 20 31 30
20 21 32 31
</DataArray>

<DataArray type="Int32" Name="offsets" format="ascii">
 4
 8
12
16
20
24
28
32
36
40
44
48
52
56
60
64
68
72
76
80
</DataArray>
<DataArray type="UInt8" Name="types" format="ascii">
9
9
9
9
9
9
9
9
9
9
9
9
9
9
9
9
9
9
9
9
</DataArray>
</Cells>
</Piece>
</UnstructuredGrid>
</VTKFile>
