<VTKFile type="UnstructuredGrid" version="0.1" byte_order="LittleEndian"> 
<UnstructuredGrid> 
<Piece NumberOfPoints="1426" NumberOfCells="976"> 
<Points> 
<DataArray type="Float64" NumberOfComponents="3" format="ascii"> 
 0.000000e+00  3.690000  0.000000
 0.000000e+00  3.490000  0.000000
 0.000000e+00  3.690000  0.139276
 0.000000e+00  3.690000 -0.139276
 0.000000e+00  3.890000  0.000000
 0.000000e+00  3.525809  0.079525
 0.000000e+00  3.602003  0.125070
 0.000000e+00  3.690000  0.069638
 0.000000e+00  3.690000 -0.069638
 0.000000e+00  3.602003 -0.125070
 0.000000e+00  3.525809 -0.079525
 0.000000e+00  3.777997  0.125070
 0.000000e+00  3.854191  0.079525
 0.000000e+00  3.854191 -0.079525
 0.000000e+00  3.777997 -0.125070
 0.000000e+00  3.618920  0.053638
 0.000000e+00  3.634628  0.080827
 0.000000e+00  3.619353 -0.053387
 0.000000e+00  3.634896 -0.080664
 0.000000e+00  3.760647  0.053387
 0.000000e+00  3.745104  0.080664
 0.000000e+00  3.761080 -0.053638
 0.000000e+00  3.745372 -0.080827
 1.263703e+00  3.434988 -0.012646
 1.187250e+00  3.251978  0.000000
 1.259415e+00  3.424723  0.138991
 1.259415e+00  3.424723 -0.138991
 1.340157e+00  3.617997 -0.025292
 1.197740e+00  3.277089  0.070142
 1.224305e+00  3.340677  0.119019
 1.261559e+00  3.429856  0.063172
 1.261559e+00  3.429856 -0.075818
 1.224305e+00  3.340677 -0.119019
 1.197740e+00  3.277089 -0.070142
 1.312917e+00  3.552793  0.108156
 1.336677e+00  3.609667  0.048189
 1.326134e+00  3.584431 -0.083288
 1.297844e+00  3.516712 -0.125439
 1.234364e+00  3.364756  0.043788
 1.239246e+00  3.376443  0.073172
 1.234538e+00  3.365172 -0.054860
 1.239356e+00  3.376706 -0.081179
 1.296141e+00  3.512635  0.034198
 1.291127e+00  3.500633  0.065966
 1.290558e+00  3.499271 -0.060674
 1.284270e+00  3.484221 -0.085514
 2.283701e+00  2.762064 -0.012646
 2.145539e+00  2.619766  0.000000
 2.275952e+00  2.754083  0.138991
 2.275952e+00  2.754083 -0.138991
 2.421864e+00  2.904363 -0.025292
 2.164496e+00  2.639291  0.070142
 2.212502e+00  2.688733  0.119019
 2.279827e+00  2.758074  0.063172
 2.279827e+00  2.758074 -0.075818
 2.212502e+00  2.688733 -0.119019
 2.164496e+00  2.639291 -0.070142
 2.372638e+00  2.853663  0.108156
 2.415575e+00  2.897886  0.048189
 2.396523e+00  2.878263 -0.083288
 2.345399e+00  2.825609 -0.125439
 2.230680e+00  2.707456  0.043788
 2.239503e+00  2.716543  0.073172
 2.230994e+00  2.707779 -0.054860
 2.239702e+00  2.716748 -0.081179
 2.342320e+00  2.822438  0.034198
 2.333260e+00  2.813107  0.065966
 2.332232e+00  2.812048 -0.060674
 2.320869e+00  2.800345 -0.085514
 2.959201e+00  1.820895 -0.012646
 2.780171e+00  1.735537  0.000000
 2.949160e+00  1.816108  0.138991
 2.949160e+00  1.816108 -0.138991
 3.138231e+00  1.906254 -0.025292
 2.804737e+00  1.747249  0.070142
 2.866941e+00  1.776908  0.119019
 2.954180e+00  1.818502  0.063172
 2.954180e+00  1.818502 -0.075818
 2.866941e+00  1.776908 -0.119019
 2.804737e+00  1.747249 -0.070142
 3.074444e+00  1.875841  0.108156
 3.130082e+00  1.902368  0.048189
 3.105395e+00  1.890598 -0.083288
 3.039148e+00  1.859013 -0.125439
 2.890496e+00  1.788138  0.043788
 2.901930e+00  1.793589  0.073172
 2.890902e+00  1.788332 -0.054860
 2.902186e+00  1.793712 -0.081179
 3.035159e+00  1.857111  0.034198
 3.023419e+00  1.851513  0.065966
 3.022088e+00  1.850879 -0.060674
 3.007364e+00  1.843858 -0.085514
 3.259125e+00  0.764407 -0.012646
 3.061949e+00  0.742965  0.000000
 3.248066e+00  0.763204  0.138991
 3.248066e+00  0.763204 -0.138991
 3.456300e+00  0.785848 -0.025292
 3.089005e+00  0.745907  0.070142
 3.157514e+00  0.753357  0.119019
 3.253595e+00  0.763805  0.063172
 3.253595e+00  0.763805 -0.075818
 3.157514e+00  0.753357 -0.119019
 3.089005e+00  0.745907 -0.070142
 3.386048e+00  0.778209  0.108156
 3.447325e+00  0.784872  0.048189
 3.420136e+00  0.781915 -0.083288
 3.347175e+00  0.773982 -0.125439
 3.183456e+00  0.756178  0.043788
 3.196049e+00  0.757548  0.073172
 3.183902e+00  0.756227 -0.054860
 3.196331e+00  0.757578 -0.081179
 3.342781e+00  0.773504  0.034198
 3.329851e+00  0.772098  0.065966
 3.328387e+00  0.771938 -0.060674
 3.312169e+00  0.770175 -0.085514
 3.205912e+00 -0.275291 -0.012646
 3.011956e+00 -0.233831  0.000000
 3.195034e+00 -0.272966  0.138991
 3.195034e+00 -0.272966 -0.138991
 3.399868e+00 -0.316751 -0.025292
 3.038570e+00 -0.239520  0.070142
 3.105961e+00 -0.253926  0.119019
 3.200473e+00 -0.274128  0.063172
 3.200473e+00 -0.274128 -0.075818
 3.105961e+00 -0.253926 -0.119019
 3.038570e+00 -0.239520 -0.070142
 3.330763e+00 -0.301979  0.108156
 3.391040e+00 -0.314864  0.048189
 3.364294e+00 -0.309147 -0.083288
 3.292525e+00 -0.293805 -0.125439
 3.131480e+00 -0.259380  0.043788
 3.143866e+00 -0.262028  0.073172
 3.131917e+00 -0.259474 -0.054860
 3.144144e+00 -0.262088 -0.081179
 3.288203e+00 -0.292882  0.034198
 3.275484e+00 -0.290163  0.065966
 3.274044e+00 -0.289855 -0.060674
 3.258091e+00 -0.286445 -0.085514
 2.856745e+00 -1.198262 -0.012646
 2.683913e+00 -1.100963  0.000000
 2.847051e+00 -1.192805  0.138991
 2.847051e+00 -1.192805 -0.138991
 3.029576e+00 -1.295560 -0.025292
 2.707628e+00 -1.114313  0.070142
 2.767679e+00 -1.148121  0.119019
 2.851898e+00 -1.195533  0.063172
 2.851898e+00 -1.195533 -0.075818
 2.767679e+00 -1.148121 -0.119019
 2.707628e+00 -1.114313 -0.070142
 2.967998e+00 -1.260894  0.108156
 3.021709e+00 -1.291132  0.048189
 2.997877e+00 -1.277715 -0.083288
 2.933924e+00 -1.241711 -0.125439
 2.790419e+00 -1.160922  0.043788
 2.801456e+00 -1.167136  0.073172
 2.790808e+00 -1.161141 -0.054860
 2.801703e+00 -1.167275 -0.081179
 2.930073e+00 -1.239543  0.034198
 2.918739e+00 -1.233162  0.065966
 2.917457e+00 -1.232441 -0.060674
 2.903241e+00 -1.224437 -0.085514
 2.286311e+00 -1.939528 -0.012646
 2.147990e+00 -1.797383  0.000000
 2.278553e+00 -1.931555  0.138991
 2.278553e+00 -1.931555 -0.138991
 2.424631e+00 -2.081672 -0.025292
 2.166970e+00 -1.816887  0.070142
 2.215030e+00 -1.866276  0.119019
 2.282432e+00 -1.935541  0.063172
 2.282432e+00 -1.935541 -0.075818
 2.215030e+00 -1.866276 -0.119019
 2.166970e+00 -1.816887 -0.070142
 2.375349e+00 -2.031028  0.108156
 2.418335e+00 -2.075202  0.048189
 2.399261e+00 -2.055602 -0.083288
 2.348079e+00 -2.003004 -0.125439
 2.233229e+00 -1.884978  0.043788
 2.242063e+00 -1.894055  0.073173
 2.233540e+00 -1.885297 -0.054860
 2.242260e+00 -1.894258 -0.081178
 2.344997e+00 -1.999836  0.034198
 2.335926e+00 -1.990515  0.065966
 2.334901e+00 -1.989461 -0.060674
 2.323523e+00 -1.977769 -0.085514
 1.573189e+00 -2.466208 -0.012646
 1.478012e+00 -2.292199  0.000000
 1.567851e+00 -2.456449  0.138991
 1.567851e+00 -2.456449 -0.138991
 1.668366e+00 -2.640217 -0.025292
 1.491072e+00 -2.316076  0.070142
 1.524142e+00 -2.376536  0.119019
 1.570520e+00 -2.461328  0.063172
 1.570520e+00 -2.461328 -0.075818
 1.524142e+00 -2.376536 -0.119019
 1.491072e+00 -2.316076 -0.070142
 1.634456e+00 -2.578219  0.108156
 1.664034e+00 -2.632296  0.048189
 1.650910e+00 -2.608302 -0.083288
 1.615691e+00 -2.543913 -0.125439
 1.536664e+00 -2.399430  0.043788
 1.542743e+00 -2.410543  0.073173
 1.536877e+00 -2.399820 -0.054859
 1.542878e+00 -2.410791 -0.081178
 1.613571e+00 -2.540036  0.034198
 1.607329e+00 -2.528625  0.065966
 1.606624e+00 -2.527336 -0.060674
 1.598795e+00 -2.513021 -0.085514
 7.904305e-01 -2.771621 -0.012646
 7.426100e-01 -2.579135  0.000000
 7.877486e-01 -2.760826  0.138991
 7.877486e-01 -2.760826 -0.138991
 8.382512e-01 -2.964108 -0.025292
 7.491717e-01 -2.605547  0.070142
 7.657872e-01 -2.672428  0.119019
 7.890897e-01 -2.766224  0.063172
 7.890897e-01 -2.766224 -0.075818
 7.657872e-01 -2.672428 -0.119019
 7.491717e-01 -2.605547 -0.070142
 8.212131e-01 -2.895527  0.108156
 8.360745e-01 -2.955346  0.048189
 8.294803e-01 -2.928804 -0.083288
 8.117853e-01 -2.857578 -0.125439
 7.720791e-01 -2.697753  0.043788
 7.751330e-01 -2.710046  0.073173
 7.721859e-01 -2.698183 -0.054859
 7.752009e-01 -2.710320 -0.081178
 8.107196e-01 -2.853289  0.034198
 8.075839e-01 -2.840666  0.065966
 8.072299e-01 -2.839241 -0.060674
 8.032960e-01 -2.823406 -0.085514
-1.930541e-08 -2.868337 -0.012646
 0.000000e+00 -2.670000  0.000000
 0.000000e+00 -2.857213  0.138991
 0.000000e+00 -2.857213 -0.138991
 0.000000e+00 -3.066675 -0.025292
 0.000000e+00 -2.697215  0.070142
 0.000000e+00 -2.766128  0.119019
 1.716927e-07 -2.862775  0.063172
 7.651903e-08 -2.862775 -0.075818
 0.000000e+00 -2.766128 -0.119019
 0.000000e+00 -2.697215 -0.070142
 0.000000e+00 -2.996009  0.108156
 0.000000e+00 -3.057647  0.048189
 0.000000e+00 -3.030298 -0.083288
 0.000000e+00 -2.956907 -0.125439
 1.494005e-07 -2.792223  0.043788
 9.398184e-08 -2.804890  0.073173
 7.510890e-08 -2.792666 -0.054859
 5.065601e-09 -2.805171 -0.081178
-1.380522e-07 -2.952487  0.034198
 1.172035e-07 -2.939481  0.065966
 7.770660e-08 -2.938014 -0.060674
 6.508778e-08 -2.921697 -0.085514
-7.419018e-01 -2.753716 -0.012646
-6.820456e-01 -2.564626  0.000000
-7.385448e-01 -2.743111  0.138991
-7.385448e-01 -2.743111 -0.138991
-8.017581e-01 -2.942806 -0.025292
-6.902587e-01 -2.590572  0.070142
-7.110562e-01 -2.656272  0.119019
-7.402232e-01 -2.748414  0.063172
-7.402232e-01 -2.748414 -0.075818
-7.110562e-01 -2.656272 -0.119019
-6.902587e-01 -2.590572 -0.070142
-7.804319e-01 -2.875435  0.108156
-7.990337e-01 -2.934199  0.048189
-7.907799e-01 -2.908125 -0.083288
-7.686313e-01 -2.838156 -0.125439
-7.189311e-01 -2.681151  0.043788
-7.227540e-01 -2.693227  0.073173
-7.190645e-01 -2.681572 -0.054859
-7.228390e-01 -2.693495 -0.081178
-7.672976e-01 -2.833942  0.034198
-7.633721e-01 -2.821542  0.065966
-7.629297e-01 -2.820145 -0.060674
-7.580054e-01 -2.804588 -0.085514
-1.396554e+00 -2.433131 -0.012646
-1.283881e+00 -2.269906  0.000000
-1.390235e+00 -2.423976  0.138991
[...]
<PointData Tensors="" Vectors="" Scalars=""><DataArray type="Float32" Name="Logarithmic_strain_Min_Principal" format="ascii">0.207512
0.729498
0.003372
0.925947
0.647743
0.624874
0.645403
0.821806
0.652981
0.776991
0.398117
0.823651
0.678555
0.789926
0.522182
0.877661
0.616208
0.999836
0.915427
0.941301
0.401257
0.147227
0.845019
0.754988
0.971202
0.052586
0.809086
0.858762
0.402728
0.224996
0.303985
0.448969
0.362161
0.163135
0.190805
0.416715
0.194371
0.091002
0.688422
0.060482
0.064825
0.491690
0.696510
0.296446
0.640231
0.955769
0.400724
0.030461
0.997669
0.598965
0.871726
0.503909
0.113571
0.613860
0.211196
0.967873
0.947361
0.043817
0.565327
0.941026
0.746894
0.588134
0.592056
0.269602
0.142743
0.833829
0.928038
0.791897
0.935252
0.153586
0.912245
0.579613
0.270204
0.829335
0.937179
0.256684
0.055888
0.023230
0.206194
0.414984
0.847573
0.593192
0.787197
0.414060
0.342480
0.373144
0.309306
0.751899
0.964015
0.621459
0.755337
0.469994
0.180958
0.843769
0.584806
0.325240
0.691236
0.524549
0.167871
0.619055
0.915329
0.152361
0.092997
0.902467
0.482207
0.689902
0.663407
0.959497
0.332556
0.917936
0.902970
0.278101
0.939359
0.771398
0.175442
0.073110
0.876172
0.565077
0.992953
0.103273
0.194722
0.529837
0.634013
0.148425
0.961783
0.623254
0.480754
0.071449
0.944984
0.227246
0.396340
0.796317
0.063035
0.080186
0.518610
0.852853
0.916484
0.319086
0.806656
0.292529
0.864321
0.835398
0.018144
0.900447
0.678314
0.892792
0.079169
0.378509
0.495928
0.257005
0.098686
0.318478
0.156024
0.630976
0.432324
0.618796
0.257889
0.796220
0.841549
0.348346
0.294250
0.088127
0.559901
0.310694
0.388600
0.381234
0.843413
0.067036
0.438502
0.386030
0.680879
0.523063
0.320636
0.743109
0.201749
0.444754
0.163592
0.132304
0.779057
0.949926
0.698426
0.769855
0.064643
0.939744
0.853167
0.695582
0.435422
0.067506
0.412772
0.489751
0.410288
0.912686
0.544401
0.528950
0.637781
0.103967
0.051578
0.458924
0.393920
0.117317
0.298831
0.621724
0.374186
0.182882
0.548934
0.342167
0.844710
0.419922
0.137219
0.963474
0.072757
0.352732
0.485003
0.337270
0.413316
0.644080
0.345891
0.855934
0.270180
0.701314
0.684954
0.243102
0.227155
0.031312
0.838264
0.000607
0.050859
0.208882
0.973459
0.571846
0.733327
0.972612
0.324241
0.178660
0.803298
0.804973
0.400333
0.897661
0.150876
0.342463
0.217672
0.762822
0.148803
0.194583
0.385611
0.071993
0.910246
0.597463
0.951412
0.835655
0.132909
0.658955
0.197084
0.116493
0.092945
0.168011
0.136323
0.837065
0.968063
0.112028
0.403853
0.570679
0.586430
0.712310
0.702807
0.148112
0.441895
0.617232
0.772621
0.734379
0.421827
0.624907
0.057256
0.886951
0.354144
0.393917
0.937313
0.892832
0.689396
0.788427
0.323134
0.002516
0.083357
0.148186
0.069783
0.696475
0.288415
0.083639
0.067537
0.595017
0.716999
0.465530
0.279900
0.797877
0.314319
0.512390
0.100292
0.409638
0.162829
0.228605
0.347806
0.209939
0.959519
0.264814
0.905613
0.537446
0.428663
0.198055
0.701631
0.237007
0.562989
0.002312
0.145879
0.243511
0.328243
0.391004
0.597365
0.530308
0.615593
0.029144
0.064417
0.115107
0.170124
0.368927
0.864334
0.629246
0.542473
0.319705
0.686469
0.187154
0.834622
0.930743
0.647402
0.532875
0.409881
0.268075
0.563498
0.318246
0.778418
0.708541
0.599545
0.634783
0.185559
0.463003
0.995193
0.895846
0.396918
0.110645
0.386342
0.403754
0.630119
0.467001
0.232964
0.437319
0.320893
0.532272
0.911317
0.019769
0.572827
0.848607
0.748861
0.467613
0.550378
0.311079
0.357426
0.942944
0.282129
0.645572
0.550718
0.777083
0.849273
0.577715
0.029066
0.429357
0.118976
0.226493
0.848115
0.945586
0.949249
0.265175
0.384676
0.434009
0.618342
0.031271
0.974119
0.171711
0.162200
0.924385
0.557845
0.740275
0.243807
0.799134
0.694215
0.742900
0.582195
0.261434
0.623219
0.178608
0.238146
0.796488
0.382944
0.719155
0.355509
0.512523
0.887036
0.299388
0.743430
0.147873
0.326293
0.482013
0.903431
0.618960
0.579360
0.298567
0.339429
0.928231
0.656693
0.210877
0.840785
0.148448
0.210231
0.869016
0.484915
0.534127
0.225441
0.891236
0.409350
0.514127
0.925048
0.895839
0.420232
0.630951
0.067534
0.468818
0.122218
0.902211
0.384184
0.345668
0.380763
0.029218
0.471603
0.001356
0.481288
0.783113
0.321638
0.130423
0.333274
0.279404
0.505972
0.980682
0.178483
0.020387
0.203795
0.649471
0.869132
0.486045
0.020496
0.303613
0.155870
0.771027
0.521526
0.052816
0.157702
0.636804
0.343741
0.748163
0.587501
0.060501
0.321381
0.357162
0.560805
0.356996
0.246423
0.758643
0.696715
0.465641
0.365996
0.680823
0.787703
0.769023
0.115679
0.758894
0.959681
0.943230
0.072134
0.605206
0.458104
0.760733
0.516956
0.670752
0.849246
0.163862
0.089526
0.406431
0.451702
0.516789
0.880140
0.737062
0.359789
0.968299
0.517065
0.752851
0.306463
0.463182
0.603652
0.144892
0.226487
0.540123
0.301555
0.659948
0.516976
0.212562
0.056957
0.116791
0.819935
0.549795
0.246558
0.035519
0.523387
0.449110
0.054875
0.467816
0.319696
0.923001
0.567035
0.297540
0.559061
0.154392
0.516622
0.591373
0.023142
0.763685
0.608900
0.012861
0.024690
0.273619
0.809082
0.804092
0.328198
0.784430
0.574992
0.008788
0.033105
0.382061
0.165222
0.983688
0.589786
0.459611
0.948225
0.312055
0.306802
0.207602
0.386062
0.255589
0.229185
0.031329
0.740975
0.810191
0.068167
0.968045
0.255383
0.107098
0.116008
0.027380
0.054229
0.469599
0.718581
0.139093
0.052348
0.230422
0.336280
0.315666
0.247730
0.327285
0.987945
0.790810
0.369943
0.591686
0.408986
0.757746
0.896256
0.654502
0.198262
0.450589
0.395552
0.144392
0.472673
0.902721
0.535490
0.150590
0.501096
0.890040
0.061647
0.388563
0.928623
0.974256
0.682225
0.704224
0.053955
0.005596
0.795694
0.517943
0.719442
0.198310
0.554684
0.422417
0.146587
0.155950
0.447778
0.385835
0.326406
0.672396
0.247380
0.108948
0.053622
0.384232
0.329159
0.276360
0.257340
0.843051
0.038426
0.951664
0.052362
0.268636
0.453563
0.881080
0.938091
0.282912
0.166760
0.821291
0.235976
0.597109
0.218762
0.828549
0.384605
0.843196
0.410787
0.994511
0.784896
0.478644
0.375045
0.825096
0.577840
0.943271
0.461079
0.879183
0.430532
0.230405
0.622957
0.032956
0.092508
0.786715
0.162841
0.187046
0.069364
0.093127
0.385359
0.561646
0.886709
0.605126
0.336690
0.375571
0.241730
0.113437
0.580915
0.836946
0.354654
0.642572
0.705785
0.397863
0.148676
0.553536
0.891238
0.229732
0.027418
0.998435
0.126445
0.908276
0.554077
0.138595
0.920770
0.644561
0.774656
0.312297
0.115569
0.009913
0.778903
0.985387
0.890402
0.899707
0.030796
0.792315
0.046768
0.414657
0.186436
0.318399
0.660169
0.269946
0.406439
0.240179
0.578548
0.128485
0.800177
0.753440
0.294038
0.582959
0.087077
0.738674
0.598047
0.359691
0.035187
0.957749
0.092201
0.021216
0.930119
0.876119
0.040033
0.875410
0.262892
0.279726
0.642060
0.762645
0.835606
0.882400
0.619694
0.090445
0.902264
0.333079
0.453726
0.047376
0.069576
0.938446
0.466378
0.985880
0.256187
0.226631
0.437437
0.705108
0.499340
0.797381
0.740324
0.661244
0.426733
0.888982
0.875145
0.323478
0.014259
0.150009
0.779455
0.822910
0.746698
0.373216
0.542333
0.834266
0.303640
0.134348
0.508796
0.630897
0.544237
0.123512
0.794301
0.472696
0.352469
0.598029
0.380969
0.033476
0.949167
0.213027
0.498039
0.937625
0.322521
0.431952
0.102799
0.935154
0.829773
0.944020
0.147705
0.279514
0.328291
0.398336
0.934381
0.453550
0.892027
0.837486
0.079990
0.905100
0.724189
0.717651
0.338091
0.382866
0.075858
0.913986
0.227560
0.688503
0.604502
0.002711
0.928383
0.426668
0.592570
0.247319
0.237997
0.697024
0.920647
0.496102
0.325166
0.582267
0.815467
0.980199
0.363391
0.318167
0.135506
0.532789
0.096458
0.479445
0.851346
0.195414
0.619582
0.470865
0.731973
0.127926
0.062712
0.887177
0.800361
0.422595
0.709119
0.309803
0.287752
0.145230
0.069738
0.872290
0.704995
0.262070
0.364148
0.380931
0.384516
0.475278
0.927023
0.184763
0.165925
0.824451
0.475198
0.257553
0.211049
0.201469
0.122871
0.117808
0.640013
0.745383
0.478299
0.956934
0.169583
0.373315
0.679564
0.290607
0.603910
0.671673
0.629377
0.740466
0.157707
0.677996
0.007898
0.118996
0.668195
0.382961
0.358813
0.160082
0.521047
0.741253
0.549377
0.920542
0.977768
0.398313
0.141492
0.131172
0.986995
0.934639
0.490349
0.412007
0.446925
0.366134
0.738377
0.405631
0.786216
0.425391
0.099634
0.849363
0.646239
0.902950
0.538684
0.331256
0.520953
0.269781
0.574017
0.757914
0.573184
0.874306
0.742152
0.929063
0.924411
0.281230
0.451761
0.112397
0.575213
0.993876
0.865367
0.913398
0.253640
0.960046
0.206452
0.125630
0.305175
0.565439
0.757441
0.628786
0.470055
0.285748
0.523808
0.294870
0.282069
0.007944
0.205142
0.401698
0.860941
0.684662
0.744022
0.605930
0.588424
0.086426
0.546164
0.315189
0.291046
0.318421
0.037980
0.070971
0.144267
0.515069
0.630150
0.221233
0.625914
0.620664
0.594122
0.069562
0.773933
0.484751
0.402693
0.797010
0.125823
0.086905
0.080261
0.487781
0.711574
0.166305
0.498049
0.162676
0.845715
0.925408
0.192822
0.014058
0.196743
0.926112
0.578571
0.739930
0.666749
0.752955
0.154110
0.633106
0.632338
0.267674
0.412071
0.688331
0.908838
0.887159
0.607552
0.246334
0.560241
0.942721
0.600691
0.006110
0.478213
0.069732
0.983021
0.481743
0.031578
0.838722
0.501246
0.147585
0.991691
0.559971
0.430126
0.624282
0.812942
0.201321
0.212112
0.002851
0.686479
0.952185
0.033433
0.572159
0.590249
0.736197
0.570439
0.351679
0.108297
0.998081
0.978257
0.416974
0.104181
0.889936
0.903996
0.910907
0.873231
0.035325
0.965355
0.969535
0.810741
0.436733
0.228687
0.049158
0.579753
0.089707
0.150667
0.326818
0.638655
0.405953
0.230667
0.237003
0.500989
0.980390
0.274203
0.457129
0.507457
0.170558
0.162664
0.665703
0.001311
0.348275
0.615268
0.215769
0.174179
0.134131
0.171423
0.074732
0.387627
0.336223
0.246115
0.093340
0.746233
0.778212
0.876009
0.146009
0.063249
0.868811
0.450916
0.482236
0.977662
0.141952
0.225847
0.011495
0.797336
0.428954
0.468469
0.931769
0.125900
0.630131
0.316838
0.708760
0.275396
0.312949
0.465267
0.365582
0.370811
0.628449
0.971072
0.237755
0.507381
0.214218
0.766797
0.463135
0.531260
0.769718
0.075677
0.608456
0.319016
0.487316
0.940253
0.518925
0.538595
0.266616
0.083453
0.310122
0.755943
0.423595
0.265209
0.998023
0.097721
0.764401
0.345772
0.763849
0.497818
0.396751
0.914058
0.735010
0.333813
0.470227
0.423312
0.533266
0.475140
0.911153
0.020474
0.764758
0.050800
0.387110
0.069919
0.062699
0.999658
0.951514
0.944328
0.075233
0.291636
0.329636
0.478757
0.020336
0.952040
0.675635
0.090916
0.357092
0.919725
0.953225
0.880025
0.507709
0.839206
0.729151
0.191243
0.914399
0.707403
0.778802
0.054589
0.169845
0.658090
0.381602
0.959233
0.600949
0.791443
0.592634
0.354586
0.020601
0.740459
0.268561
0.682216
0.816738
0.707678
0.573952
0.179594
0.144663
0.447783
0.923825
0.135637
0.295139
0.684941
0.577218
0.460154
0.260358
0.293674
0.309768
0.877920
0.426448
0.916412
0.520381
0.051020
0.567607
0.453555
0.823971
0.481110
0.158417
0.810892
0.654107
0.810971
0.328124
0.696816
0.038995
0.059106
0.349128
0.922308
0.553837
0.125915
0.397252
0.268270
0.603110
0.483667
0.800932
0.478542
0.973805
0.885948
0.912592
0.829786
0.367271
0.269491
0.076852
0.863892
0.235063
0.987971
0.052221
0.009764
0.042288
0.228012
0.003581
0.547641
0.331185
0.295599
0.208445
0.822866
0.164709
0.755131
0.744137
0.074117
0.095092
0.351260
0.070935
0.993230
0.617257
0.536022
0.379071
0.258517
0.977582
0.709819
0.132452
0.166585
0.790443
0.207107
0.114851
0.400027
0.167866
0.472719
0.090120
0.537507
0.829530
0.750613
0.492431
0.581775
0.269720
0.763903
0.313306
0.311732
0.138126
0.008771
0.663434
0.977729
0.167331
0.108121
0.097612
0.252959
0.395085
0.424349
0.997111
0.154501
0.841389
0.537913
0.144460
0.587253
0.310399
0.386865
0.396474
0.184430
0.687546
0.025665
0.987193
0.198412
0.370597
0.076157
0.140718
0.916941
0.431818
0.179185
0.105012
0.762038
0.649791
0.200470
0.927854
0.959949
0.531878
0.904528
0.046660
0.533873
0.009775
0.448781
0.257729
0.350737
0.113532
0.720897
0.943175
0.649554
0.053179
0.826387
0.059284
0.815410
0.574856
0.531357
0.574496
0.740267
0.759596
0.918173
0.471124
0.675651
0.072213
0.630456
0.279231
0.415980
0.077083
0.288105
0.517291
0.732340
0.631386
0.309462
0.953416
0.599007
0.820566
0.644156
0.809616
0.897635
0.840791
0.795775
0.655438
0.596403
0.614454
0.639959
0.011414
0.280086
0.192457
0.794081
0.240786
0.477466
0.646178
0.153602
0.333468
0.061411
0.986025
0.660610
0.747330
0.972619
0.111641
0.989792
0.758677
0.070713
0.851050
0.175152
0.338809
0.972180
0.349682
0.411160
0.764361
0.636266
0.072595
0.218565
0.106732
0.348253
0.390935
0.771653
0.495667
0.667399
0.015307
0.402685
0.955290
0.420497
0.874697
0.203028
0.679414
0.042953
0.392645
0.463885
0.075833
0.402086
0.122157
0.051095
0.897179
0.435058
0.741240
0.538154
0.719695
0.449100
0.884437
0.050425
0.334025
0.079719
0.990288
0.080761
0.966867
0.314994
0.211812
0.659662
0.471059
0.132539
0.417415
0.015197
0.410595
0.902361
0.359980
0.813948
0.786859
0.570305
0.159606
0.706484
0.624790
0.515316
0.603163
0.096130
0.947024
0.435998
0.393921
0.460145
0.600283
0.695334
0.216735
0.910061
0.549647
0.909424
0.205323
0.077189
0.378835
0.968096
0.959270
0.757198
0.335488
0.536027
0.857255
0.077404
0.719196</DataArray></PointData><Cells> 
<DataArray type="Int32" Name="connectivity" format="ascii"> 
  38   28   29   39   15    5    6   16
  30   23   38   39    7    0   15   16
  25   30   39   29    2    7   16    6
  24   28   38   23    1    5   15    0
  24   23   40   33    1    0   17   10
  40   41   32   33   17   18    9   10
  40   23   31   41   17    0    8   18
  41   31   26   32   18    8    3    9
  27   23   42   35    4    0   19   12
  30   43   42   23    7   20   19    0
  42   43   34   35   19   20   11   12
  43   30   25   34   20    7    2   11
  44   36   37   45   21   13   14   22
  31   23   44   45    8    0   21   22
  26   31   45   37    3    8   22   14
  27   36   44   23    4   13   21    0
  61   51   52   62   38   28   29   39
  53   46   61   62   30   23   38   39
  48   53   62   52   25   30   39   29
  47   51   61   46   24   28   38   23
  47   46   63   56   24   23   40   33
  63   64   55   56   40   41   32   33
  63   46   54   64   40   23   31   41
  64   54   49   55   41   31   26   32
  50   46   65   58   27   23   42   35
  53   66   65   46   30   43   42   23
  65   66   57   58   42   43   34   35
  66   53   48   57   43   30   25   34
  67   59   60   68   44   36   37   45
  54   46   67   68   31   23   44   45
  49   54   68   60   26   31   45   37
  50   59   67   46   27   36   44   23
  84   74   75   85   61   51   52   62
  76   69   84   85   53   46   61   62
  71   76   85   75   48   53   62   52
  70   74   84   69   47   51   61   46
  70   69   86   79   47   46   63   56
  86   87   78   79   63   64   55   56
  86   69   77   87   63   46   54   64
  87   77   72   78   64   54   49   55
  73   69   88   81   50   46   65   58
  76   89   88   69   53   66   65   46
  88   89   80   81   65   66   57   58
  89   76   71   80   66   53   48   57
  90   82   83   91   67   59   60   68
  77   69   90   91   54   46   67   68
  72   77   91   83   49   54   68   60
  73   82   90   69   50   59   67   46
 107   97   98  108   84   74   75   85
  99   92  107  108   76   69   84   85
  94   99  108   98   71   76   85   75
  93   97  107   92   70   74   84   69
  93   92  109  102   70   69   86   79
 109  110  101  102   86   87   78   79
 109   92  100  110   86   69   77   87
 110  100   95  101   87   77   72   78
  96   92  111  104   73   69   88   81
  99  112  111   92   76   89   88   69
 111  112  103  104   88   89   80   81
 112   99   94  103   89   76   71   80
 113  105  106  114   90   82   83   91
 100   92  113  114   77   69   90   91
  95  100  114  106   72   77   91   83
  96  105  113   92   73   82   90   69
 130  120  121  131  107   97   98  108
 122  115  130  131   99   92  107  108
 117  122  131  121   94   99  108   98
 116  120  130  115   93   97  107   92
 116  115  132  125   93   92  109  102
 132  133  124  125  109  110  101  102
 132  115  123  133  109   92  100  110
 133  123  118  124  110  100   95  101
 119  115  134  127   96   92  111  104
 122  135  134  115   99  112  111   92
 134  135  126  127  111  112  103  104
 135  122  117  126  112   99   94  103
 136  128  129  137  113  105  106  114
 123  115  136  137  100   92  113  114
 118  123  137  129   95  100  114  106
 119  128  136  115   96  105  113   92
 153  143  144  154  130  120  121  131
 145  138  153  154  122  115  130  131
 140  145  154  144  117  122  131  121
 139  143  153  138  116  120  130  115
 139  138  155  148  116  115  132  125
 155  156  147  148  132  133  124  125
 155  138  146  156  132  115  123  133
 156  146  141  147  133  123  118  124
 142  138  157  150  119  115  134  127
 145  158  157  138  122  135  134  115
 157  158  149  150  134  135  126  127
 158  145  140  149  135  122  117  126
 159  151  152  160  136  128  129  137
 146  138  159  160  123  115  136  137
 141  146  160  152  118  123  137  129
 142  151  159  138  119  128  136  115
 176  166  167  177  153  143  144  154
 168  161  176  177  145  138  153  154
 163  168  177  167  140  145  154  144
 162  166  176  161  139  143  153  138
 162  161  178  171  139  138  155  148
 178  179  170  171  155  156  147  148
 178  161  169  179  155  138  146  156
 179  169  164  170  156  146  141  147
 165  161  180  173  142  138  157  150
 168  181  180  161  145  158  157  138
 180  181  172  173  157  158  149  150
 181  168  163  172  158  145  140  149
 182  174  175  183  159  151  152  160
 169  161  182  183  146  138  159  160
 164  169  183  175  141  146  160  152
 165  174  182  161  142  151  159  138
 199  189  190  200  176  166  167  177
 191  184  199  200  168  161  176  177
 186  191  200  190  163  168  177  167
 185  189  199  184  162  166  176  161
 185  184  201  194  162  161  178  171
 201  202  193  194  178  179  170  171
 201  184  192  202  178  161  169  179
 202  192  187  193  179  169  164  170
 188  184  203  196  165  161  180  173
 191  204  203  184  168  181  180  161
 203  204  195  196  180  181  172  173
 204  191  186  195  181  168  163  172
 205  197  198  206  182  174  175  183
 192  184  205  206  169  161  182  183
 187  192  206  198  164  169  183  175
 188  197  205  184  165  174  182  161
 222  212  213  223  199  189  190  200
 214  207  222  223  191  184  199  200
 209  214  223  213  186  191  200  190
 208  212  222  207  185  189  199  184
 208  207  224  217  185  184  201  194
 224  225  216  217  201  202  193  194