<VTKFile type="UnstructuredGrid" version="0.1" byte_order="LittleEndian"> 
<UnstructuredGrid> 
<Piece NumberOfPoints="4758" NumberOfCells="15266"> 
<Points> 
<DataArray type="Float64" NumberOfComponents="3" format="ascii"> 
 -798.448914 -52.703865  1.457034e+02
 -856.713623 -60.895317  1.457034e+02
 -857.482971 -61.450996  1.457034e+02
 -856.726501 -63.311039  1.457034e+02
 -798.448914 -63.436031  1.457034e+02
 -857.673584 -61.847477  1.457034e+02
 -735.581970 -43.476620  1.457034e+02
 -559.181213 -44.860607  1.457034e+02
 -817.860291 -55.506878  1.457034e+02
 -837.278992 -58.258614  1.457034e+02
 -837.300720 -63.378079  1.457034e+02
 -817.874817 -63.423473  1.457034e+02
 -777.489441 -49.654343  1.457034e+02
 -756.533997 -46.577202  1.457034e+02
 -709.661621 -39.827053  1.457034e+02
 -683.697388 -36.504471  1.457034e+02
 -657.676331 -33.664150  1.457034e+02
 -631.587524 -31.543257  1.457034e+02
 -605.431946 -30.607838  1.457034e+02
 -579.323120 -32.124939  1.457034e+02
 -570.443542 -52.831436  1.457034e+02
 -590.812744 -56.834076  1.457034e+02
 -611.488770 -58.926468  1.457034e+02
 -632.226990 -60.291305  1.457034e+02
 -652.988220 -61.251759  1.457034e+02
 -673.759888 -61.955528  1.457034e+02
 -694.536926 -62.477299  1.457034e+02
 -715.317078 -62.859188  1.457034e+02
 -736.098938 -63.127914  1.457034e+02
 -756.881836 -63.303101  1.457034e+02
 -777.665283 -63.400993  1.457034e+02
 -538.299744 -64.237839  4.630098e+01
 -545.027344 -62.146328  8.120701e+01
 -450.000000  55.588837  2.158968e+01
 -566.910217 -40.900879  3.054040e+01
 -644.575806 -43.873699  2.425654e+01
 -528.088989 -39.306530  3.377113e+01
 -660.750244 -42.517612  7.911959e+01
 -739.192261 -58.639854  2.064086e+01
 -645.634155 -56.322540  6.694486e+01
 -876.182983 -31.096897  5.520962e+01
 -816.996643 -63.577992  9.243944e+01
 -533.552185  -7.718403  8.903732e+01
 -802.218567 -72.089874  7.333868e+01
 -780.565186 -48.532608  1.396419e+01
 -655.234985  -3.452960  2.976710e+01
 -761.132263 -47.900467  1.537156e+01
 -764.980652 -80.777382  1.597523e+01
 -823.315613 -81.335121  1.412096e+01
 -720.315857  54.138962  2.872423e+01
 -776.759155 -63.436310  5.304111e+01
 -703.550415 -28.397690  0.000000e+00
 -683.420227 -45.266468  2.121631e+01
 -586.280090 -33.225441  8.245842e+01
 -742.750671  78.102447  0.000000e+00
 -586.323730 -41.669727  2.894602e+01
 -526.830688 -55.021404  8.202401e+01
 -728.031189 -47.525726  1.102732e+02
 -656.478638  21.169983  0.000000e+00
 -517.116516  44.353718  4.493905e+01
 -595.735901  77.749481  0.000000e+00
 -800.000000 -28.776487  1.404378e+01
 -547.498657 -40.113442  3.214904e+01
 -835.662292  15.649868  4.996904e+01
 -489.275391 -37.630691  3.705244e+01
 -592.066223 121.972771  1.550415e+01
 -624.166687 -65.119545  6.093189e+01
 -579.241455 -62.388920  6.677966e+01
 -495.329529 -64.937576  5.861427e+01
 -522.224243 -28.036669  3.617651e+01
 -873.838745 -60.367680  4.666539e+01
 -673.695313 -73.992622  5.187758e+01
 -793.690735  98.604477  1.434467e+01
 -703.115295 -18.011248  2.260925e+01
 -713.316650 110.124786  1.483888e+01
 -773.639709 -81.650246  0.000000e+00
 -450.000000 -69.500595  0.000000e+00
 -831.781311 -66.865959  8.434759e+01
 -469.750092 -23.460974  4.203979e+01
 -829.142456 -72.397064  6.998506e+01
 -603.433960   9.378324  6.032690e+01
 -762.419556 -63.336010  0.000000e+00
 -711.077698 -60.624023  5.989447e+01
 -776.778320 -58.587208  8.647377e+01
 -867.982605  51.386101  0.000000e+00
 -533.889587 -57.587097  8.602636e+01
 -800.000000 -69.899674  3.547273e+01
 -734.154236 -69.243065  4.594128e+01
 -656.478088  80.328674  2.792397e+01
 -900.218323 -12.633467  5.298854e+01
 -836.941956 -67.489334  1.111063e+02
 -589.558289 130.659058  0.000000e+00
 -782.609009  48.630730  2.888725e+01
 -655.080872 -25.139000  7.887060e+01
 -668.262573 -43.539181  7.856760e+01
 -846.519714 -67.386955  9.639650e+01
 -800.000000 -63.943665  2.002513e+01
 -813.508972 -73.199074  6.373661e+01
 -642.505554 -75.464302  4.035765e+01
 -552.625305 -74.739342  2.691327e+01
 -525.265808 -50.425754  8.380303e+01
 -523.517334 -50.152870  8.332903e+01
 -809.032349  -1.102204  6.749854e+01
 -766.033691 -50.680061  1.277626e+02
 -630.051453 -76.982910  2.950168e+01
 -476.368652  -2.425727  4.490240e+01
 -767.451355 -76.030296  4.081862e+01
 -600.458069 -36.220409  8.360045e+01
 -449.999908  -6.508262  4.640025e+01
 -558.941589 -66.999641  5.787584e+01
 -838.449646 -69.692894  5.189942e+01
 -697.879211  -4.987665  2.536931e+01
 -515.967651 -41.684112  8.109344e+01
 -525.223389 -45.231808  8.434103e+01
 -652.791809 117.015434  1.516957e+01
 -565.094543 -68.147057  6.263931e+01
 -738.907043 -13.035859  7.446436e+01
 -758.424866   5.053479  5.424532e+01
 -852.161133 -64.770058  1.209590e+02
 -722.783813 -19.277954  2.081289e+01
 -450.000000 -24.475699  1.785887e+01
 -509.240662 -62.863617  6.883121e+01
 -815.843445 -65.505104  7.883646e+01
 -789.798462  -0.123796  6.851209e+01
 -800.000000 -69.900002  0.000000e+00
 -855.287170 -61.678333  1.392696e+02
 -800.000000 -14.531208  6.078040e+01
 -450.000000  22.101360  4.594156e+01
 -701.553711 -12.010040  7.685950e+01
 -781.101318 -10.095607  1.670303e+01
 -599.520691 -19.499723  8.322211e+01
 -856.112854 -62.193108  1.395400e+02
 -615.254211  83.089569  2.962635e+01
 -730.666138 -75.886025  4.155578e+01
 -539.578491   9.454407  8.273083e+01
 -783.368591 -62.158802  0.000000e+00
 -836.193298 -68.128090  5.442297e+01
 -470.278046 124.115135  1.615999e+01
 -841.118591 -70.612602  7.147382e+01
 -593.790222 -71.205887  5.457133e+01
 -450.000000  -6.621297  4.639302e+01
 -586.767883 -70.582031  5.632169e+01
 -530.464722 -58.355045  7.942301e+01
 -525.655823 -48.322640  8.434248e+01
 -727.330750 -52.702785  7.432053e+01
 -789.078003 -76.158371  3.980291e+01
 -675.751770  97.872650  2.458340e+01
 -767.174133 -76.101135  4.048490e+01
 -708.764893 -75.649269  4.228213e+01
 -676.765259 104.670044  0.000000e+00
 -467.454834  13.138184  6.111769e+01
 -796.378784 -76.169563  3.955721e+01
 -585.783569 -70.565399  5.624435e+01
 -846.319458  95.052612  0.000000e+00
 -558.426941 -67.110527  6.515636e+01
 -671.929810 -77.081879  3.430698e+01
 -542.398987 -47.935856  1.149060e+02
 -520.236755 -28.652113  8.782521e+01
 -836.970703 -72.802582  5.291830e+01
 -536.969116 -65.658493  6.232103e+01
 -564.823792 -34.377674  1.135532e+02
 -450.000000  23.444229  2.063750e+01
 -635.009705 -35.828552  7.176487e+01
 -598.231506 112.512268  0.000000e+00
 -450.000000 -23.166864  0.000000e+00
 -491.586487  66.242599  3.806956e+01
 -507.777435  28.700420  5.837545e+01
 -586.872498  10.620258  0.000000e+00
 -739.834717 -49.692535  1.078683e+02
 -800.000000   2.521226  2.177046e+01
 -800.431274 -74.274147  5.505202e+01
 -891.563843 -68.643593  3.186295e+01
 -450.000000  93.029678  1.635300e+01
 -800.354980  68.729729  0.000000e+00
 -550.790100 -46.398232  1.303047e+02
 -847.890442 -66.645073  1.025598e+02
 -652.193359 -79.346901  0.000000e+00
 -842.407043 -69.612457  7.790666e+01
 -591.493164 -77.304932  0.000000e+00
 -551.041748 -75.542160  0.000000e+00
 -530.822205 -74.528549  0.000000e+00
 -792.382874 -50.905903  6.861993e+01
 -819.612915   9.546361  1.798068e+01
 -698.265869 -47.967182  7.639480e+01
 -727.853210 -34.552204  1.881183e+01
 -450.000000 -63.671700  1.868283e+01
 -748.264954 -47.210308  1.331937e+02
 -705.755981 -49.148239  7.585918e+01
 -724.877930 -68.271332  1.030888e+02
 -607.978760 -72.260536  5.157160e+01
 -643.943115 -74.070526  4.651379e+01
 -851.002319 -16.258425  6.792834e+01
 -738.360229 -75.884651  4.163493e+01
 -679.579163 -75.149239  4.358352e+01
 -744.978821 -20.750288  1.885040e+01
 -598.401184 -66.973801  8.584097e+01
 -546.869446 -64.583992  7.086557e+01
 -629.500732 -73.462311  4.817759e+01
 -846.729004 -66.376434  1.006666e+02
 -778.036255 -69.809280  3.975010e+01
 -615.127747 -72.705620  5.030536e+01
 -642.304871   1.958992  6.942924e+01
 -818.278381 -76.188011  3.874685e+01
 -753.231018   8.687321  4.079429e+01
 -781.776978 -76.143677  4.003820e+01
 -779.899780  67.925316  2.489245e+01
 -712.834717  22.019194  5.206133e+01
 -722.527954  13.931834  6.343667e+01
 -792.307922 -70.933373  8.316260e+01
 -628.680542 -73.473450  4.803236e+01
 -592.753540  43.561359  0.000000e+00
 -760.684937 -65.247788  1.299098e+02
 -680.202087 -75.113029  4.380682e+01
 -803.679077 -76.177834  3.929982e+01
 -813.631470 -15.166702  6.999861e+01
 -665.001892 -74.794731  4.448779e+01
 -657.720276 -74.585014  4.503078e+01
 -800.000000 -30.440889  0.000000e+00
 -550.569702 -18.863476  3.569037e+01
 -693.568481 -22.083332  6.853593e+01
 -886.095581  39.557568  3.204962e+01
 -734.770935 -51.750542  7.152863e+01
 -571.895813 -69.055107  6.031827e+01
 -743.650208 -72.547081  6.923489e+01
 -682.682068  15.651938  6.494353e+01
 -467.247711 -70.152916  3.535163e+01
 -510.164764 -65.663704  6.828241e+01
 -653.232727 -41.536621  7.967495e+01
 -596.099060 -23.708921  7.670004e+01
 -534.884155 -28.331007  3.502088e+01
 -724.343689 -49.553974  9.253995e+01
 -767.735840 108.959793  0.000000e+00
 -616.359192  61.970360  3.152269e+01
 -748.038879 112.136841  0.000000e+00
 -632.570862 118.904236  1.527995e+01
 -483.264404 -69.744011  4.793381e+01
 -573.284668 105.381233  2.614429e+01
 -629.328918 127.425690  0.000000e+00
 -585.376831 -35.458610  8.468291e+01
 -637.155212  60.637287  3.069031e+01
 -649.178650 125.413666  0.000000e+00
 -497.544220   6.258637  8.203397e+01
 -450.000000 123.216927  1.625154e+01
 -450.000000 109.624382  0.000000e+00
 -875.376160  23.982948  1.095448e+01
 -750.931702 -21.155617  0.000000e+00
 -618.190552 -10.746244  7.630424e+01
 -665.681824 -74.765129  4.469035e+01
 -882.334534  55.408245  2.665722e+01
 -661.289795 -40.374180  7.684704e+01
[...]
<PointData Tensors="" Vectors="" Scalars=""><DataArray type="Float32" Name="Logarithmic_strain_Min_Principal" format="ascii">0.253258
0.774383
0.501854
0.617189
0.767907
0.337167
0.947228
0.656605
0.765963
0.666421
0.901237
0.495431
0.705584
0.875409
0.075057
0.304948
0.330994
0.958673
0.794682
0.343085
0.303221
0.456522
0.046412
0.720501
0.835742
0.147047
0.601020
0.088678
0.758803
0.077092
0.417515
0.505005
0.614370
0.032171
0.231415
0.382457
0.710387
0.234436
0.702015
0.955909
0.289156
0.107553
0.798037
0.572558
0.966016
0.043841
0.940553
0.817295
0.959061
0.792718
0.351624
0.059485
0.183441
0.234247
0.846523
0.690836
0.153653
0.372536
0.591697
0.160260
0.697836
0.315232
0.404301
0.577517
0.392890
0.708425
0.735863
0.929049
0.698959
0.394863
0.832800
0.492386
0.208576
0.524295
0.892522
0.935944
0.904340
0.359393
0.541761
0.688797
0.140552
0.610440
0.201151
0.853030
0.253660
0.503628
0.984259
0.091133
0.387129
0.866269
0.994526
0.828402
0.450360
0.243727
0.382442
0.099260
0.983656
0.247830
0.976375
0.230013
0.231723
0.108250
0.027006
0.337390
0.579658
0.780921
0.088041
0.828187
0.518937
0.089913
0.923964
0.995820
0.460235
0.525024
0.417735
0.442721
0.823708
0.182144
0.503881
0.195449
0.638905
0.368361
0.006522
0.038706
0.854603
0.358063
0.357707
0.690017
0.197610
0.491258
0.327113
0.680250
0.949348
0.360770
0.264137
0.029990
0.976402
0.698567
0.994501
0.767979
0.132256
0.225191
0.332904
0.466059
0.716203
0.772997
0.422043
0.078957
0.121487
0.325751
0.677368
0.450663
0.773223
0.348034
0.594920
0.281116
0.818749
0.640602
0.484339
0.777024
0.539605
0.815145
0.094226
0.413884
0.255026
0.574871
0.142436
0.639001
0.684589
0.740829
0.293761
0.013092
0.897704
0.944705
0.683985
0.086576
0.163913
0.587128
0.361820
0.983176
0.511538
0.722186
0.204500
0.809147
0.877261
0.780073
0.246665
0.660688
0.516617
0.184341
0.035067
0.167322
0.584408
0.127696
0.083354
0.111490
0.699123
0.732081
0.373493
0.354359
0.438459
0.104233
0.737390
0.849702
0.730327
0.873014
0.191404
0.319616
0.560979
0.930725
0.670318
0.856044
0.429817
0.311997
0.208655
0.309237
0.494601
0.243879
0.537133
0.684725
0.940284
0.305326
0.978730
0.794060
0.104462
0.913278
0.479395
0.269473
0.785520
0.405385
0.920424
0.406602
0.701529
0.360471
0.551276
0.449908
0.637915
0.992271
0.906111
0.312406
0.069537
0.560809
0.421175
0.927073
0.665022
0.020305
0.454247
0.956734
0.693999
0.440961
0.544024
0.477547
0.141601
0.930873
0.346197
0.028450
0.392038
0.345302
0.868960
0.139780
0.186675
0.860688
0.317212
0.014855
0.059665
0.511293
0.503298
0.389983
0.052962
0.870839
0.200871
0.918413
0.351152
0.507012
0.626011
0.906638
0.390057
0.548447
0.129846
0.493970
0.159881
0.803679
0.565390
0.055683
0.779134
0.355146
0.093924
0.494620
0.913557
0.051670
0.994119
0.387698
0.055352
0.753616
0.041255
0.550311
0.457383
0.799113
0.870565
0.082168
0.765720
0.184123
0.595182
0.885267
0.495892
0.564031
0.455233
0.385095
0.078336
0.540646
0.272410
0.445274
0.953178
0.279709
0.957268
0.108909
0.782722
0.624153
0.808221
0.841896
0.807778
0.175699
0.724860
0.354834
0.545343
0.014284
0.757278
0.617553
0.892986
0.251956
0.204524
0.050721
0.151299
0.444924
0.395914
0.824780
0.671498
0.599947
0.698763
0.956960
0.362396
0.423862
0.803656
0.350181
0.804735
0.861573
0.153397
0.250290
0.004806
0.478592
0.654676
0.190818
0.134321
0.078961
0.374394
0.716372
0.644415
0.512541
0.312454
0.633599
0.431190
0.459197
0.207040
0.380332
0.434843
0.479962
0.064944
0.409114
0.473800
0.518259
0.940678
0.943948
0.718008
0.702605
0.218705
0.222243
0.276595
0.574497
0.178445
0.057632
0.829606
0.755494
0.304879
0.934882
0.536288
0.750327
0.261985
0.818695
0.127307
0.540408
0.085839
0.284416
0.291507
0.747455
0.831170
0.070654
0.448034
0.730141
0.157749
0.143819
0.751849
0.975966
0.712346
0.415331
0.519844
0.576651
0.188554
0.303646
0.415601
0.648725
0.816193
0.838739
0.010114
0.851835
0.543515
0.765398
0.907464
0.476836
0.507344
0.970091
0.733180
0.435282
0.687788
0.282776
0.425996
0.880466
0.750333
0.622254
0.998659
0.520130
0.713318
0.034338
0.947774
0.598186
0.250730
0.650629
0.803234
0.423150
0.413616
0.510273
0.574861
0.553771
0.172618
0.406435
0.064325
0.839373
0.533711
0.341140
0.179180
0.732586
0.965940
0.401796
0.639920
0.996530
0.156520
0.845758
0.042314
0.800320
0.221189
0.653166
0.907567
0.349176
0.375766
0.565346
0.842968
0.564494
0.331518
0.421632
0.506990
0.353029
0.349516
0.261424
0.713306
0.115169
0.508264
0.739986
0.313739
0.822708
0.526378
0.195354
0.746691
0.240287
0.507045
0.116550
0.253514
0.979858
0.333168
0.590867
0.794892
0.488820
0.202881
0.781972
0.079731
0.796006
0.023725
0.204755
0.403358
0.999224
0.634521
0.313153
0.198046
0.957207
0.093470
0.132993
0.664640
0.675284
0.540585
0.897025
0.391321
0.383653
0.480183
0.854617
0.395666
0.416089
0.580019
0.478297
0.040267
0.988143
0.280802
0.320234
0.297801
0.501877
0.500530
0.631880
0.795434
0.100244
0.060989
0.883521
0.570052
0.494696
0.309872
0.916706
0.839523
0.405726
0.636479
0.963825
0.876411
0.631039
0.874310
0.671385
0.323179
0.496457
0.421725
0.250373
0.097365
0.196714
0.745615
0.343557
0.206005
0.987116
0.468536
0.327160
0.685290
0.849820
0.152766
0.084602
0.708048
0.822339
0.241917
0.105252
0.987325
0.882769
0.923904
0.380617
0.192446
0.469120
0.645317
0.270771
0.602703
0.141838
0.453920
0.610330
0.981191
0.692852
0.749484
0.171723
0.346606
0.888088
0.555221
0.249555
0.037599
0.710962
0.051291
0.867220
0.445184
0.922941
0.444831
0.076562
0.742660
0.249480
0.743540
0.707860
0.997250
0.419488
0.455870
0.043461
0.443797
0.682267
0.435037
0.044733
0.205608
0.654473
0.516496
0.389856
0.819536
0.537523
0.971226
0.593796
0.250160
0.726828
0.253104
0.311576
0.627201
0.312974
0.462145
0.384634
0.609983
0.015385
0.623282
0.952396
0.575759
0.297074
0.566423
0.598316
0.720286
0.337267
0.490938
0.717690
0.571347
0.111134
0.003261
0.188424
0.667844
0.040654
0.011026
0.652973
0.035927
0.885654
0.539789
0.554720
0.848654
0.863824
0.638128
0.944229
0.056287
0.754573
0.727738
0.965342
0.585124
0.340738
0.982995
0.899228
0.043229
0.708108
0.851094
0.108019
0.130003
0.857749
0.965974
0.855994
0.683914
0.510059
0.622115
0.154054
0.268585
0.210297
0.546667
0.191201
0.925884
0.042506
0.149787
0.708698
0.212626
0.822713
0.323241
0.507155
0.921308
0.484277
0.730789
0.474428
0.730917
0.866021
0.361597
0.386537
0.257111
0.722769
0.634202
0.111988
0.514682
0.436806
0.542832
0.041034
0.633764
0.532432
0.789554
0.724363
0.241319
0.866353
0.795992
0.056945
0.064604
0.459824
0.971490
0.296675
0.449993
0.665231
0.129932
0.366308
0.452439
0.173932
0.703350
0.576619
0.284011
0.889935
0.513376
0.087854
0.952692
0.760305
0.725221
0.975120
0.136780
0.018291
0.870742
0.763105
0.309784
0.800114
0.925673
0.016367
0.449248
0.097509
0.288923
0.771292
0.153542
0.192437
0.539175
0.357422
0.138133
0.331261
0.154443
0.044282
0.611242
0.524708
0.539614
0.889245
0.546765
0.427166
0.713865
0.751595
0.665170
0.165412
0.304714
0.273626
0.668215
0.741511
0.701440
0.756683
0.664754
0.648993
0.264600
0.651320
0.445537
0.520134
0.982921
0.223926
0.054903
0.296793
0.166669
0.232753
0.404867
0.407752
0.994723
0.086763
0.074491
0.910507
0.986607
0.465109
0.039989
0.170541
0.727438
0.617231
0.266185
0.193413
0.570533
0.925756
0.534497
0.349232
0.562105
0.265415
0.176013
0.580277
0.758926
0.122295
0.736941
0.636090
0.948634
0.624778
0.056198
0.498297
0.212487
0.759973
0.746732
0.240614
0.702986
0.324820
0.263714
0.399652
0.400154
0.939186
0.750659
0.398619
0.692025
0.975285
0.709527
0.721990
0.860624
0.931535
0.318669
0.075328
0.304906
0.664993
0.880482
0.515916
0.951924
0.239666
0.151314
0.325176
0.484329
0.998171
0.074936
0.521105
0.268295
0.272204
0.199014
0.347448
0.282465
0.104097
0.126173
0.067687
0.561184
0.317489
0.359832
0.709479
0.432865
0.991185
0.462353
0.384958
0.903222
0.536053
0.026432
0.871791
0.061040
0.746811
0.124797
0.244502
0.441641
0.857977
0.105276
0.625845
0.753971
0.986893
0.841803
0.455673
0.206299
0.669318
0.230635
0.325226
0.026389
0.463585
0.860088
0.197370
0.813635
0.383792
0.712396
0.863817
0.471803
0.199066
0.924222
0.214640
0.574157
0.745702
0.714491
0.278609
0.873835
0.044131
0.165353
0.109762
0.798848
0.822932
0.207819
0.449026
0.068942
0.445320
0.241223
0.958284
0.457196
0.620193
0.728153
0.008932
0.876255
0.597171
0.917069
0.930480
0.311351
0.505309
0.676102
0.403842
0.084218
0.870032
0.386293
0.108377
0.070432
0.689019
0.431363
0.130074
0.429065
0.789887
0.577756
0.208578
0.687246
0.116626
0.515882
0.437187
0.124218
0.569317
0.171705
0.409895
0.455475
0.709818
0.247574
0.993222
0.981590
0.700177
0.646285
0.726065
0.904944
0.466310
0.739397
0.880731
0.515100
0.692452
0.813862
0.153992
0.379783
0.139664
0.051511
0.426158
0.149179
0.180975
0.947476
0.595819
0.598822
0.489709
0.128951
0.895803
0.438292
0.428716
0.069697
0.969468
0.221268
0.000327
0.446495
0.073252
0.817099
0.296115
0.357140
0.328332
0.006089
0.703278
0.751783
0.261432
0.473418
0.288080
0.036261
0.536590
0.111044
0.793718
0.694041
0.977569
0.699965
0.053426
0.444002
0.060189
0.536045
0.073733
0.990921
0.011291
0.612158
0.903697
0.687108
0.527693
0.853236
0.947001
0.552527
0.276078
0.086777
0.505245
0.216317
0.818027
0.006850
0.111991
0.760443
0.042043
0.912156
0.328647
0.622085
0.419300
0.411932
0.167907
0.155947
0.699362
0.950754
0.367724
0.077028
0.553827
0.469731
0.827417
0.144850
0.594006
0.955522
0.024576
0.806052
0.582098
0.676791
0.480217
0.488785
0.533390
0.867383
0.527101
0.600909
0.158490
0.646491
0.540571
0.137527
0.181665
0.865495
0.546811
0.764762
0.864150
0.026166
0.218938
0.289678
0.101046
0.865419
0.590352
0.374723
0.536618
0.828308
0.515420
0.666891
0.858463
0.834976
0.880568
0.749662
0.852279
0.813797
0.020803
0.052172
0.635256
0.426469
0.946608
0.483627
0.784075
0.030189
0.129422
0.395284
0.336603
0.098732
0.989589
0.022974
0.718490
0.731712
0.352457
0.509648
0.973128
0.014154
0.369214
0.703134
0.463110
0.770976
0.004512
0.174787
0.297594
0.036942
0.566671
0.576537
0.116735
0.322111
0.663072
0.842846
0.248816
0.513996
0.955363
0.776963
0.964599
0.435433
0.968268
0.268760
0.165347
0.273705
0.325644
0.825681
0.522740
0.526069
0.410171
0.882879
0.643960
0.572587
0.900501
0.815661
0.055013
0.301464
0.734702
0.289132
0.823472
0.807543
0.866446
0.753387
0.341935
0.594380
0.850909
0.120387
0.354518
0.511666
0.603480
0.765131
0.074038
0.278422
0.515807
0.520949
0.351822
0.904346
0.277767
0.889547
0.767062
0.346120
0.447186
0.654260
0.612552
0.577915
0.834259
0.817758
0.186879
0.546766
0.716003
0.802150
0.745119
0.089832
0.250364
0.807630
0.093798
0.597926
0.923684
0.607718
0.128180
0.491987
0.481185
0.925234
0.499417
0.248496
0.873827
0.849701
0.130050
0.279185
0.407301
0.934513
0.322474
0.308875
0.206795
0.557359
0.916340
0.377029
0.080737
0.233533
0.017257
0.648505
0.926458
0.789664
0.696373
0.857885
0.313928
0.993343
0.047653
0.358424
0.947862
0.021116
0.797697
0.917744
0.457010
0.046903
0.064884
0.973314
0.521314
0.888969
0.974621
0.029504
0.542958
0.606971
0.097381
0.120167
0.111952
0.290762
0.780043
0.252285
0.262268
0.231251
0.666686
0.731192
0.638614
0.156562
0.547554
0.398019
0.702731
0.008081
0.911157
0.509787
0.355768
0.819375
0.327289
0.313691
0.906824
0.607105
0.728986
0.379195
0.198080
0.766104
0.495105
0.709513
0.303167
0.206807
0.293937
0.509996
0.301759
0.546591
0.185932
0.725831
0.544052
0.073475
0.186671
0.138823
0.830556
0.908875
0.519462
0.201708
0.639987
0.808987
0.151126
0.708240
0.367281
0.676757
0.168870
0.080705
0.162249
0.516452
0.628359
0.868572
0.768476
0.543452
0.176650
0.811349
0.224153
0.669903
0.573466
0.078158
0.730769
0.525452
0.925200
0.204814
0.034758
0.428624
0.645511
0.980636
0.783249
0.954252
0.534226
0.602049
0.748868
0.437662
0.561896
0.544257
0.553042
0.920520
0.739226
0.091133
0.178407
0.823871
0.969739
0.591924
0.009149
0.723828
0.036281
0.918572
0.872864
0.172313
0.535893
0.115293
0.180717
0.879954
0.824815
0.838055
0.935439
0.843218
0.271164
0.507983
0.086696
0.895746
0.977586
0.535752
0.779528
0.998337
0.976104
0.253746
0.872721
0.246978
0.285363
0.539051
0.299317
0.014746
0.998183
0.899575
0.233572
0.823451
0.335481
0.579598
0.623340
0.518469
0.600525
0.483610
0.093428
0.754566
0.715174
0.932642
0.874234
0.898673
0.267293
0.186468
0.259833
0.580971
0.296083
0.363768
0.514298
0.658048
0.442285
0.565665
0.573299
0.289404
0.695132
0.010485
0.689497
0.339640
0.379590
0.257491
0.585946
0.849347
0.133358
0.684512
0.517188
0.412220
0.177533
0.384054
0.429662
0.761498
0.658852
0.232057
0.934102
0.287542
0.108440
0.627589
0.365776
0.264071
0.892544
0.207636
0.201652
0.302106
0.519506
0.542690
0.411499
0.498921
0.046962
0.062414
0.051438
0.812437
0.930142
0.977435
0.278655
0.773513
0.738932
0.438279
0.687055
0.849987
0.488091
0.412377
0.657302
0.800825
0.238879
0.683642
0.238813
0.946614
0.572196
0.070079
0.208930
0.283204
0.742420
0.955836
0.792523
0.964145
0.299586
0.333036
0.809194
0.172363
0.891942
0.783532
0.327934
0.681592
0.739512
0.658849
0.299271
0.329124
0.998996
0.957331
0.778161
0.364247
0.074565
0.963606
0.970150
0.858385
0.799623
0.330341
0.831520
0.942955
0.863216
0.477562
0.465441
0.110206
0.409168
0.985683
0.821127
0.690496
0.663999
0.620352
0.446611
0.889091
0.364232
0.111514
0.922493
0.729917
0.719928
0.086561
0.225883
0.527369
0.600573
0.068996
0.198184
0.078269
0.048636
0.936331
0.184443
0.967336
0.035554
0.480538
0.522095
0.440541
0.536536
0.704374
0.508928
0.957124
0.602246
0.672662
0.216802
0.187542
0.635230
0.091105
0.112262
0.586340
0.374292
0.368496
0.934487
0.782228
0.110539
0.306357
0.785755
0.693473
0.214497
0.809350
0.579596
0.900358
0.627245
0.313534
0.013087
0.275986
0.952288
0.461727
0.992594
0.658326
0.776998
0.461605
0.842240
0.171704
0.670322
0.326344
0.345397
0.086006
0.837090
0.246189
0.795985
0.612573
0.418231
0.525573
0.350078
0.197820
0.797999
0.558122
0.890401
0.672208
0.946463
0.358779
0.225991
0.624760
0.956747
0.629485
0.656908
0.748517
0.987762
0.119800
0.318707
0.213182
0.116517
0.315544
0.829228
0.136205
0.930572
0.043102
0.700519
0.373174
0.715712
0.402701
0.376300
0.246906
0.340464
0.415159
0.096002
0.702166
0.298006
0.905745
0.424158
0.400078
0.300588
0.905662
0.198538
0.623227
0.964825
0.914095
0.410529
0.575075
0.952314
0.993386
0.054274
0.727873
0.173186
0.960518
0.465702
0.326465
0.471675
0.172955
0.756807
0.837096
0.605469
0.395945
0.625555
0.703252
0.064448
0.251297
0.571563
0.928734
0.269665
0.382289
0.350556
0.841776
0.394814
0.129276
0.906807
0.695620
0.425966
0.489618
0.780014
0.458628
0.274343
0.755915
0.352766
0.937022
0.865442
0.436363
0.869908
0.403215
0.325144
0.466132
0.701058
0.846763
0.615529
0.791028
0.685717
0.802170
0.012800
0.586514
0.754199
0.448571
0.596144
0.345892
0.946637
0.649170
0.353483
0.730764
0.039136
0.882740
0.327514
0.080701
0.255459
0.348481
0.847163
0.200007
0.679499
0.003391
0.432804
0.460747
0.089190
0.146768
0.949352
0.253313
0.649212
0.246084
0.175560
0.102806
0.105793
0.855211
0.985070
0.371185
0.962639
0.692755
0.112517
0.654629
0.118345
0.652008
0.766263
0.373824
0.680593
0.788874
0.688572
0.359293
0.714316
0.345314
0.693387
0.578347
0.523646
0.110360
0.080653
0.328418
0.284309
0.857529
0.516437
0.733290
0.483718
0.933025
0.535080
0.867583
0.842774
0.787023
0.983894
0.096711
0.185705
0.974522
0.974283
0.051763
0.152222
0.933269
0.396139
0.616817
0.593541
0.613701
0.791804
0.354098
0.346190
0.849202
0.906107
0.234886
0.974791
0.154947
0.260217
0.206365
0.553359
0.912049
0.793118
0.418077
0.775024
0.610813
0.150755
0.301204
0.167777
0.153984
0.816802
0.777930
0.764210
0.053449
0.950283
0.201254
0.685054
0.720722
0.028595
0.616806
0.332663
0.583236
0.901610
0.704940
0.638093
0.287973
0.363156
0.648082
0.534543
0.366342
0.423618
0.792601
0.940237
0.784234
0.037366
0.910214
0.055953
0.879951
0.522074
0.094121
0.471887
0.301382
0.853616
0.583563
0.722467
0.804478
0.529381
0.313805
0.581718
0.754690
0.726632
0.304854
0.283451
0.500180
0.794912
0.250577
0.717872
0.983224
0.584553
0.881762
0.710189
0.053217
0.165162
0.754754
0.043491
0.080712
0.400154
0.330641
0.597651
0.535414
0.590253
0.122374
0.741673
0.314248
0.576466
0.592743
0.601839
0.995846
0.437777
0.488833
0.376665
0.675717
0.006170
0.893284
0.410126
0.816944
0.686101
0.552032
0.416689
0.328651
0.398004
0.103604
0.530852
0.998681
0.459079
0.162840
0.008030
0.898746
0.336916
0.837587
0.411480
0.089966
0.014578
0.719082
0.990650
0.784653
0.868961
0.043256
0.236513
0.741774
0.683395
0.580287
0.676278
0.863998
0.439936
0.876161
0.869622
0.326511
0.737033
0.433507
0.327460
0.623136
0.762958
0.518491
0.561466
0.171010
0.232609
0.786255
0.321344
0.827844
0.161949
0.336971
0.426495
0.756206
0.062835
0.657817
0.905689
0.037538
0.382314
0.553917
0.765453
0.138036
0.426834
0.017225
0.447972
0.587946
0.358882
0.866032
0.852040
0.842595
0.052022
0.315726
0.501876
0.495293
0.002195
0.646814
0.083990
0.605497
0.708507
0.830916
0.145807
0.714899
0.169784
0.608621
0.878016
0.546385
0.195117
0.867383
0.263775
0.957977
0.693793
0.213000
0.485361
0.364163
0.438629
0.567438
0.679133
0.247631
0.825774
0.761921
0.579719
0.252891
0.348758
0.154339
0.621721
0.133559
0.434902
0.534141
0.911660
0.062961
0.778037
0.313511
0.009155
0.478619
0.232487
0.045408
0.317456
0.382201
0.948963
0.642573
0.364180
0.377408
0.469787
0.938636
0.143516
0.705089
0.806405
0.296909
0.525642
0.250451
0.898396
0.082601
0.306132
0.361728
0.927313
0.040263
0.699693
0.309752
0.982428
0.972310
0.634260
0.435444
0.807326
0.256202
0.591097
0.293132
0.335971
0.484486
0.348169
0.872078
0.293479
0.510207
0.312842
0.479613
0.710101
0.142473
0.652443
0.701624
0.729373
0.959990
0.721436
0.413633
0.107869
0.239060
0.847626
0.000165
0.289232
0.534171
0.812908
0.668871
0.852661
0.839136
0.089868
0.950010
0.676271
0.814401
0.266440
0.858255
0.467562
0.398273
0.546933
0.049580
0.874279
0.442457
0.837543
0.573574
0.580335
0.287616
0.896534
0.458888
0.229691
0.714494
0.431585
0.600530
0.544561
0.338442
0.055946
0.784956
0.611485
0.984727
0.989701
0.635053
0.537398
0.733510
0.555625
0.942710
0.516400
0.695489
0.854943
0.059035
0.911617
0.555738
0.991335
0.836661
0.328084
0.718811
0.603338
0.948878
0.523198
0.770287